      84
 i =        0, time =        0.000, E =      -688.4824713819
  O         5.2833321908       10.7147210386        2.2604291546
  O         1.3656675712        2.5237206641       11.0595706450
  O         1.9588016875       10.7138970537        4.3970630947
  O         4.6901991932        2.5228968821        8.9229377840
  O         0.2678152240        7.7105590727        8.6998250748
  O         6.3811846291       15.9015589107        4.6201748121
  O         3.5911690209        7.7114124846       11.2838844302
  O         3.0578310582       15.9024126356        2.0361159731
  O         2.1450532393       13.4076816879        4.8368173222
  O         4.5039470497        5.2166809876        8.4831825262
  O         5.4697383250       13.4055675173        1.8193794630
  O         1.1792606523        5.2145676395       11.5006206098
  O         5.6691350580        5.6492227739       10.9262192786
  O         0.9798646743       13.8402225829        2.3937801131
  O         2.3429271299        5.6479915269        9.0531878647
  O         4.3060734030       13.8389912430        4.2668120385
  O         6.4597731141       12.2739440667        4.1982821453
  O         0.1892267124        4.0829439543        9.1217177380
  O         3.1355189953       12.2749299917        2.4610323917
  O         3.5134812089        4.0839299551       10.8589676524
  O         4.1879162574       11.1046624169        4.6945198033
  O         2.4610847588        2.9136624246        8.6254797126
  O         0.8636450796       11.1047114035        1.9649805719
  O         5.7853541059        2.9137126105       11.3550194292
  C         5.5675810399        0.3775926483       12.5505451558
  C         1.0814192221        8.5685928793        0.7694555032
  C         2.2438929066        0.3772991470        7.4291725309
  C         4.4051069601        8.5682988100        5.8908273116
  C         4.5225476951       15.9152120767        6.0558688275
  C         2.1264522808        7.7242118538        7.2641312648
  C         1.1980999145       15.9142812380        0.6028538731
  C         5.4508996158        7.7232804012       12.7171455839
  H         4.7007732393        0.7163231722       11.9668986855
  H         1.9482262661        8.9073225311        1.3531011307
  H         1.3768396997        0.7156437604        8.0133319068
  H         5.2721603214        8.9066433048        5.3066677897
  C         1.1482881687        7.4478032477       13.2525676739
  C         5.5007114044       15.6388032249        0.0674325246
  C         4.4726009238        7.4482958694        6.7286527983
  C         2.1763989603       15.6392961668        6.5913469316
  C         6.5186918613        9.2803714486        0.8660612598
  C         0.1303088493        1.0893712014       12.4539393843
  C         3.1932522461        9.2798526925        5.7935135845
  C         3.4557481326        1.0888527308        7.5264862637
  H         1.0945165391        9.4213994175        6.3664278622
  H         5.5544835919        1.2303992557        6.9535723298
  H         4.4194520888        9.4219861709        0.2935307545
  H         2.2295470977        1.2309857123       13.0264693730
  C         0.2155007631        2.2698252075       11.5501611895
  C         6.4335009042       10.4608251081        1.7698384679
  C         3.5413570036        2.2691742130        8.4312635222
  C         3.1076415586       10.4601738661        4.8887364425
  C         0.0904132001        5.8698751548       11.5837611364
  C         6.5585878299       14.0608752888        1.7362391672
  C         3.4150855552        5.8703737557        8.3979087550
  C         3.2339132869       14.0613736515        4.9220914057
  H         2.0632690007        6.8522482501       13.1444348362
  H         4.5857314530       15.0432489940        0.1755651596
  H         5.3874097112        6.8531349391        6.8367254830
  H         1.2615902546       15.0441354271        6.4832742379
  C         2.0334089451        8.8700455505        6.4794884009
  C         4.6155911417        0.6790455064        6.8405116467
  C         5.3587049881        8.8700110956        0.1806900781
  C         1.2902959910        0.6790115276       13.1393099853
  O         0.4934387024        6.1389234402        7.1541313843
  O         6.1555613342       14.3299234580        6.1658687599
  O         3.8189429598        6.1368712558       12.8260056820
  O         2.8300571521       14.3278712066        0.4939939892
  C        -0.0181737491       15.2101445737        0.7824745006
  C         6.6671734145        7.0191439914       12.5375250758
  C         3.3064292578       15.2111193256        5.8758047201
  C         3.3425707405        7.0201190513        7.4441952248
 Al         1.8332227120        4.0744055960       10.0303839906
 Al         4.8157773040       12.2654057274        3.2896159134
 Al         5.1577700230        4.0748068775        9.9507353679
 Al         1.4912300104       12.2658069996        3.3692646890
  N         0.8779966673        7.1566297493        7.7835020882
  N         5.7710033549       15.3476297905        5.5364977954
  N         4.2025853629        7.1558755439       12.1983892160
  N         2.4464147703       15.3468753828        1.1216107907
  H         3.1389559809       12.8350002646        1.6495649312
  H         3.5100439455        4.6440002984       11.6704350402
  H         6.4631745906       12.8345560674        5.0093358785
  H         0.1858253926        4.6435560463        8.3106640433
      84
 i =        1, time =        0.500, E =      -688.4810866500
  O         5.2865806694       10.7128843648        2.2597328460
  O         1.3669172041        2.5229630996       11.0584588034
  O         1.9581542579       10.7126180538        4.3949287567
  O         4.6943584161        2.5200486598        8.9242305169
  O         0.2716967957        7.7091302928        8.7002346157
  O         6.3826005304       15.9002105435        4.6227776061
  O         3.5913388135        7.7100921260       11.2854575514
  O         3.0549703946       15.9001573651        2.0344534848
  O         2.1429071517       13.4096606852        4.8348053695
  O         4.5036977659        5.2207998193        8.4817320180
  O         5.4690411153       13.4089436891        1.8178856695
  O         1.1808814704        5.2139767522       11.5029759506
  O         5.6693122606        5.6500341703       10.9236689294
  O         0.9785959727       13.8398210300        2.3954649272
  O         2.3428153851        5.6516515638        9.0531288505
  O         4.3101410854       13.8402615324        4.2672677945
  O         6.4597533714       12.2710806454        4.2003773097
  O         0.1887243087        4.0838391916        9.1223265336
  O         3.1368197937       12.2750421399        2.4604694775
  O         3.5123007939        4.0857958002       10.8597986874
  O         4.1892436067       11.1044902092        4.6985304097
  O         2.4589639335        2.9137653342        8.6244723277
  O         0.8667413859       11.1048313923        1.9636908340
  O         5.7799187037        2.9132645390       11.3551838813
  C         5.5652682361        0.3795239506       12.5489342148
  C         1.0850057601        8.5709910705        0.7723421070
  C         2.2452590608        0.3738492340        7.4301536459
  C         4.4060662529        8.5685124981        5.8907467986
  C         4.5188241047       15.9147513555        6.0571329462
  C         2.1236409707        7.7243700645        7.2630957807
  C         1.1980363459       15.9173111274        0.6048535755
  C         5.4494578469        7.7247288992       12.7193431164
  H         4.7174591187        0.7255851583       11.9766218513
  H         1.9511769726        8.9000248548        1.3473719086
  H         1.3922640223        0.7215281462        8.0080684884
  H         5.2623898482        8.8980863151        5.3080442090
  C         1.1444409848        7.4497874419       13.2513526079
  C         5.4997690067       15.6430018778        0.0685000977
  C         4.4727955217        7.4476610474        6.7283871394
  C         2.1731011255       15.6392311056        6.5915076579
  C         6.5192634818        9.2807281524        0.8621908694
  C         0.1292609324        1.0869431211       12.4524823357
  C         3.1921133538        9.2788206295        5.7924014177
  C         3.4565109173        1.0874457900        7.5261040273
  H         1.0814558535        9.4083704047        6.3658442777
  H         5.5526113672        1.2264613443        6.9457614730
  H         4.4245255547        9.4242325476        0.2771385284
  H         2.2336287083        1.2429269811       13.0264399770
  C         0.2120793696        2.2692785860       11.5491076352
  C         6.4351220884       10.4597210435        1.7704119254
  C         3.5428246922        2.2690872439        8.4309718188
  C         3.1104246822       10.4578585272        4.8912199057
  C         0.0917896164        5.8747836139       11.5859225641
  C         6.5588831427       14.0611823557        1.7365759573
  C         3.4116167765        5.8697580783        8.3937841495
  C         3.2321268758       14.0592261061        4.9214196209
  H         2.0734128918        6.8507067819       13.1400956017
  H         4.6003361454       15.0396436540        0.1862513845
  H         5.3894236239        6.8522604190        6.8477686626
  H         1.2643172570       15.0406004990        6.4802876278
  C         2.0324039591        8.8716905519        6.4818150863
  C         4.6168600973        0.6765519458        6.8406351367
  C         5.3584109188        8.8704596134        0.1796284627
  C         1.2927681516        0.6771711678       13.1409560329
  O         0.4916838115        6.1408078922        7.1511815700
  O         6.1559213203       14.3282632121        6.1683346556
  O         3.8175828272        6.1384266923       12.8283256461
  O         2.8326706538       14.3293455125        0.4970253188
  C        -0.0168486222       15.2107272793        0.7827004414
  C         6.6696192208        7.0198656434       12.5319120233
  C         3.3082500949       15.2133392913        5.8807986900
  C         3.3425064197        7.0179953304        7.4427979626
 Al         1.8342964199        4.0716966498       10.0311878348
 Al         4.8148878683       12.2676192050        3.2881621750
 Al         5.1565660908        4.0738856195        9.9497972292
 Al         1.4901258442       12.2629801196        3.3684693206
  N         0.8760290736        7.1534816990        7.7872446828
  N         5.7698310937       15.3478350632        5.5331602633
  N         4.2035120717        7.1552379701       12.1956549240
  N         2.4469267230       15.3512928284        1.1202253108
  H         3.1350339417       12.8419719783        1.6649758322
  H         3.4946848682        4.6473738379       11.6623773012
  H         6.4621168633       12.8206564005        5.0089172065
  H         0.1810401390        4.6530133327        8.3173882743
      84
 i =        2, time =        1.000, E =      -688.4767036935
  O         5.2898169567       10.7110536955        2.2590492254
  O         1.3681317631        2.5221986070       11.0573562313
  O         1.9575355373       10.7113298954        4.3928041606
  O         4.6984968524        2.5172007589        8.9255210129
  O         0.2755530664        7.7077109864        8.7006755799
  O         6.3840269136       15.8988759771        4.6253613391
  O         3.5914971634        7.7087822751       11.2870090891
  O         3.0521298027       15.8979299811        2.0328241674
  O         2.1407614267       13.4116346888        4.8327916030
  O         4.5034483351        5.2249075414        8.4802822457
  O         5.4683401509       13.4123124714        1.8163934752
  O         1.1824825051        5.2133982983       11.5053359211
  O         5.6695109612        5.6508578467       10.9211342200
  O         0.9773330487       13.8394185067        2.3971553564
  O         2.3426948171        5.6553041237        9.0530765872
  O         4.3141762981       13.8415337885        4.2677336236
  O         6.4597304696       12.2681840840        4.2024211086
  O         0.1882225765        4.0847344803        9.1229361656
  O         3.1381145345       12.2751195526        2.4599592314
  O         3.5111190136        4.0876368596       10.8605925525
  O         4.1905649368       11.1043189110        4.7025421398
  O         2.4568771328        2.9138576297        8.6234585347
  O         0.8698292587       11.1049491891        1.9623986068
  O         5.7745011657        2.9128102983       11.3553515061
  C         5.5630593030        0.3814222418       12.5473889250
  C         1.0885241471        8.5733528565        0.7751783655
  C         2.2466767397        0.3704077428        7.4311136400
  C         4.4069542324        8.5686982165        5.8906998392
  C         4.5151553993       15.9142813720        6.0583803434
  C         2.1208519640        7.7244978662        7.2620774758
  C         1.1979838212       15.9203142658        0.6068593278
  C         5.4480373921        7.7261340095       12.7215059629
  H         4.7329185696        0.7351656186       11.9855078011
  H         1.9544690656        8.8929348959        1.3420422699
  H         1.4069752001        0.7275513630        8.0033110569
  H         5.2532840089        8.8898117217        5.3089183157
  C         1.1406975074        7.4517403925       13.2501468338
  C         5.4988898431       15.6472030817        0.0695758346
  C         4.4729935358        7.4470211102        6.7281267361
  C         2.1698431165       15.6391668547        6.5916731321
  C         6.5198656461        9.2810978432        0.8583528112
  C         0.1282389878        1.0845202146       12.4510314560
  C         3.1909841468        9.2777805091        5.7912997568
  C         3.4572846035        1.0860390546        7.5257286852
  H         1.0686303885        9.3954269696        6.3652613377
  H         5.5511396481        1.2227543086        6.9380120559
  H         4.4291829903        9.4267344649        0.2608853788
  H         2.2372390159        1.2544699065       13.0265118047
  C         0.2086945077        2.2687353648       11.5480445479
  C         6.4367523219       10.4586164437        1.7709670331
  C         3.5442813338        2.2690020467        8.4306839129
  C         3.1131650086       10.4555664556        4.8936730017
  C         0.0931666515        5.8796319501       11.5880294311
  C         6.5591758781       14.0615002790        1.7369038834
  C         3.4081650669        5.8691492717        8.3896690179
  C         3.2303897304       14.0571145696        4.9207584491
  H         2.0826799086        6.8496331603       13.1359151885
  H         4.6142600363       15.0357799952        0.1968574752
  H         5.3913055177        6.8514560494        6.8586399414
  H         1.2667625847       15.0369374181        6.4773538435
  C         2.0313747259        8.8733271572        6.4841345083
  C         4.6180925899        0.6740609991        6.8407652859
  C         5.3581435278        8.8708969871        0.1785560256
  C         1.2952493251        0.6753985207       13.1425615311
  O         0.4899204592        6.1426817948        7.1482376744
  O         6.1562690428       14.3266319394        6.1707812938
  O         3.8162269486        6.1399855363       12.8306382666
  O         2.8352755462       14.3308265252        0.5000538413
  C        -0.0155326518       15.2113261068        0.7829166244
  C         6.6720202428        7.0206299539       12.5263356848
  C         3.3100223376       15.2155027828        5.8857556778
  C         3.3424132366        7.0158962651        7.4413838505
 Al         1.8353661655        4.0689917531       10.0319851259
 Al         4.8140019359       12.2698301294        3.2867151400
 Al         5.1553633591        4.0729692169        9.9488644259
 Al         1.4890213796       12.2601523287        3.3676711369
  N         0.8741061198        7.1503460797        7.7909417564
  N         5.7686508031       15.3479967868        5.5298739486
  N         4.2044487825        7.1545942874       12.1929556381
  N         2.4474294902       15.3556722383        1.1188183015
  H         3.1311396329       12.8495296014        1.6795137693
  H         3.4794454694        4.6511561110       11.6549031333
  H         6.4610431191       12.8072862505        5.0092431554
  H         0.1763000820        4.6624756664        8.3240761539
      84
 i =        3, time =        1.500, E =      -688.4704458850
  O         5.2930258165       10.7092378665        2.2583889567
  O         1.3692774247        2.5214226566       11.0562748520
  O         1.9569771749       10.7100252164        4.3907051900
  O         4.7025869124        2.5143563539        8.9268011473
  O         0.2793554546        7.7063118154        8.7011816675
  O         6.3854736762       15.8975699348        4.6279025955
  O         3.5916322605        7.7074944634       11.2885140825
  O         3.0493321436       15.8957603506        2.0312653273
  O         2.1386194326       13.4135995704        4.8307744488
  O         4.5031972324        5.2289921805        8.4788363076
  O         5.4676299235       13.4156642277        1.8149070557
  O         1.1840459836        5.2128448196       11.5077015727
  O         5.6697533216        5.6517039264       10.9186356040
  O         0.9760803949       13.8390130291        2.3988519065
  O         2.3425538960        5.6589367315        9.0530370529
  O         4.3181473252       13.8428064271        4.2682192242
  O         6.4597018664       12.2652264947        4.2043631915
  O         0.1877220880        4.0856300481        9.1235465589
  O         3.1393986620       12.2751294471        2.4595489790
  O         3.5099344649        4.0894294622       10.8613157853
  O         4.1918795671       11.1041492426        4.7065501863
  O         2.4548525366        2.9139288707        8.6224357933
  O         0.8728969496       11.1050579428        1.9611031506
  O         5.7691243714        2.9123395802       11.3555244645
  C         5.5610594052        0.3832483752       12.5459829133
  C         1.0919046021        8.5756394082        0.7779064063
  C         2.2481961359        0.3669810910        7.4320230446
  C         4.4076977228        8.5688253778        5.8907285968
  C         4.5115933754       15.9138009417        6.0595990086
  C         2.1181147581        7.7245724253        7.2610884460
  C         1.1979503418       15.9232671557        0.6088719390
  C         5.4466625943        7.7274573607       12.7236018095
  H         4.7458279203        0.7454618572       11.9927373844
  H         1.9585180508        8.8863023991        1.3374740847
  H         1.4201639744        0.7339130486        7.9995429328
  H         5.2456123093        8.8821524233        5.3087997831
  C         1.1371557963        7.4536340383       13.2489549264
  C         5.4981293714       15.6514022418        0.0706727873
  C         4.4732034491        7.4463679374        6.7278835258
  C         2.1666589859       15.6390995016        6.5918418337
  C         6.5205240797        9.2814945237        0.8545789905
  C         0.1272734676        1.0821114577       12.4495963359
  C         3.1898712568        9.2767242246        5.7902244204
  C         3.4580837846        1.0846331470        7.5253628995
  H         1.0563887210        9.3826168504        6.3646744379
  H         5.5503335245        1.2194424763        6.9303920355
  H         4.4331070694        9.4296973025        0.2449200450
  H         2.2399104979        1.2652113992       13.0267659570
  C         0.2053703983        2.2682020121       11.5469643970
  C         6.4384125923       10.4575146863        1.7714844735
  C         3.5457199736        2.2689204424        8.4304052208
  C         3.1158157301       10.4533228569        4.8960627006
  C         0.0945387959        5.8843567143       11.5900241395
  C         6.5594690271       14.0618398002        1.7372162857
  C         3.4047566059        5.8685519767        8.3855757055
  C         3.2287442667       14.0550724385        4.9201187498
  H         2.0902976240        6.8494524032       13.1319923141
  H         4.6268847199       15.0314654807        0.2073503090
  H         5.3928865533        6.8508438356        6.8692051487
  H         1.2687102721       15.0330903753        6.4744822615
  C         2.0302916767        8.8749489472        6.4864376799
  C         4.6192603858        0.6715822153        6.8409091224
  C         5.3579246590        8.8713157120        0.1774640114
  C         1.2977438378        0.6737616033       13.1440857986
  O         0.4881415657        6.1445320325        7.1453047660
  O         6.1565926015       14.3250565343        6.1731915420
  O         3.8148804616        6.1415491788       12.8329369270
  O         2.8378617159       14.3323185000        0.5030717621
  C        -0.0142385700       15.2119575568        0.7831131595
  C         6.6743350356        7.0214805786       12.5208382058
  C         3.3116936640       15.2175554843        5.8906375722
  C         3.3422652223        7.0138503382        7.4399357714
 Al         1.8364269224        4.0662967626       10.0327727502
 Al         4.8131239911       12.2720343942        3.2852780916
 Al         5.1541633139        4.0720628329        9.9479387578
 Al         1.4879176743       12.2573245683        3.3668726940
  N         0.8722713191        7.1472345828        7.7945436347
  N         5.7674569503       15.3480705817        5.5266928037
  N         4.2054031902        7.1539365315       12.1903300108
  N         2.4479143680       15.3599703723        1.1173674377
  H         3.1273025437       12.8582100359        1.6923872712
  H         3.4644326541        4.6557009364       11.6485345517
  H         6.4599485939       12.7949213472        5.0110123447
  H         0.1716421821        4.6719160413        8.3306987693
      84
 i =        4, time =        2.000, E =      -688.4635960900
  O         5.2961925612       10.7074454243        2.2577622516
  O         1.3703222964        2.5206310309       11.0552257720
  O         1.9565084178       10.7086972320        4.3886469517
  O         4.7066015242        2.5115189619        8.9280629623
  O         0.2830759194        7.7049434496        8.7017857987
  O         6.3869503474       15.8963064531        4.6303792104
  O         3.5917327723        7.7062399184       11.2899485094
  O         3.0466002216       15.8936779124        2.0298141822
  O         2.1364849990       13.4155515465        4.8287525683
  O         4.5029429623        5.2330417753        8.4773972182
  O         5.4669052974       13.4189896427        1.8134305114
  O         1.1855552008        5.2123281745       11.5100736271
  O         5.6700599622        5.6525819632       10.9161924795
  O         0.9748423414       13.8386028551        2.4005547727
  O         2.3423815889        5.6625372007        9.0530159586
  O         4.3220238055       13.8440778792        4.2687335219
  O         6.4596652013       12.2621874084        4.2061632840
  O         0.1872234328        4.0865267179        9.1241567100
  O         3.1406680160       12.2750472061        2.4592722031
  O         3.5087465514        4.0911558846       10.8619444035
  O         4.1931863575       11.1039816872        4.7105497145
  O         2.4529171960        2.9139690940        8.6214017050
  O         0.8759330048       11.1051510150        1.9598036871
  O         5.7638111834        2.9118423475       11.3557048463
  C         5.5593575441        0.3849667319       12.5447793262
  C         1.0950853027        8.5778151710        0.7804738447
  C         2.2498570136        0.3635778618        7.4328589760
  C         4.4082339029        8.5688672323        5.8908693802
  C         4.5081889324       15.9133094341        6.0607775095
  C         2.1154578881        7.7245720677        7.2601398593
  C         1.1979432272       15.9261472263        0.6108916124
  C         5.4453566891        7.7286620374       12.7255991165
  H         4.7550524320        0.7568311303       11.9976143476
  H         1.9636646263        8.8803396811        1.3339709803
  H         1.4311442240        0.7407829710        7.9971700568
  H         5.2400302144        8.8753923691        5.3072660221
  C         1.1338985435        7.4554492870       13.2477827280
  C         5.4975323003       15.6555901932        0.0718035939
  C         4.4734320047        7.4456948549        6.7276690339
  C         2.1635787753       15.6390230103        6.5920119244
  C         6.5212628489        9.2819316755        0.8509002546
  C         0.1263937913        1.0797265570       12.4481857268
  C         3.1887803038        9.2756439591        5.7891909991
  C         3.4589226783        1.0832290400        7.5250096264
  H         1.0450551428        9.3700012080        6.3640797322
  H         5.5503953721        1.2166550841        6.9229591945
  H         4.4360592351        9.4332817897        0.2293746377
  H         2.2412773120        1.2748061978       13.0272701346
  C         0.2021290903        2.2676844764       11.5458606493
  C         6.4401227875       10.4564193612        1.7719455606
  C         3.5471341844        2.2688436896        8.4301408454
  C         3.1183340198       10.4511521748        4.8983574054
  C         0.0959009681        5.8888955814       11.5918508409
  C         6.5597653986       14.0622112753        1.7375066914
  C         3.4014166346        5.8679704561        8.3815165918
  C         3.2272299400       14.0531308323        4.9195107671
  H         2.0956648306        6.8504809601       13.1284073281
  H         4.6377069815       15.0265656586        0.2176926016
  H         5.3940214307        6.8505294811        6.8793335116
  H         1.2699867743       15.0290270741        6.4716852307
  C         2.0291275762        8.8765486969        6.4887157178
  C         4.6203414283        0.6691276507        6.8410737409
  C         5.3577701054        8.8717122939        0.1763454797
  C         1.3002494483        0.6723219821       13.1454904314
  O         0.4863402143        6.1463455492        7.1423875618
  O         6.1568810357       14.3235608138        6.1755499148
  O         3.8135482854        6.1431185897       12.8352154724
  O         2.8404197023       14.3338244059        0.5060706708
  C        -0.0129778274       15.2126372516        0.7832812242
  C         6.6765244787        7.0224605109       12.5154614689
  C         3.3132122774       15.2194449436        5.8954078566
  C         3.3420378912        7.0118847624        7.4384372966
 Al         1.8374738679        4.0636174957       10.0335476654
 Al         4.8122584112       12.2742278795        3.2838546747
 Al         5.1529672511        4.0711716304        9.9470220898
 Al         1.4868157820       12.2544979004        3.3660761957
  N         0.8705664891        7.1441587052        7.7980024699
  N         5.7662438697       15.3480161394        5.5236668835
  N         4.2063821452        7.1532572183       12.1878149334
  N         2.4483722820       15.3641458762        1.1158518026
  H         3.1235457994       12.8684214580        1.7030260440
  H         3.4497415496        4.6612667850       11.6436437299
  H         6.4588280900       12.7839188705        5.0147615502
  H         0.1671029236        4.6812967637        8.3372417663
      84
 i =        5, time =        2.500, E =      -688.4572978668
  O         5.2993110679       10.7056800576        2.2571771982
  O         1.3712390867        2.5198179097       11.0542166566
  O         1.9561549592       10.7073364130        4.3866385405
  O         4.7105241259        2.5086854761        8.9293017966
  O         0.2866965752        7.7036130465        8.7025212439
  O         6.3884694468       15.8950955111        4.6327765614
  O         3.5917880594        7.7050264771       11.2912931581
  O         3.0439495504       15.8917060178        2.0285036802
  O         2.1343572136       13.4174921247        4.8267198784
  O         4.5026833988        5.2370543762        8.4759642878
  O         5.4661598026       13.4222879864        1.8119641124
  O         1.1869984382        5.2118581706       11.5124583722
  O         5.6704505866        5.6535030466       10.9138169530
  O         0.9736196743       13.8381855432        2.4022678749
  O         2.3421671680        5.6661024278        9.0530184763
  O         4.3257863169       13.8453496805        4.2692860609
  O         6.4596181338       12.2590495973        4.2078016605
  O         0.1867259755        4.0874281052        9.1247663720
  O         3.1419215794       12.2748612679        2.4591423448
  O         3.5075518252        4.0928111715       10.8624687073
  O         4.1944870296       11.1038161954        4.7145457912
  O         2.4510920676        2.9139690895        8.6203515734
  O         0.8789338719       11.1052222867        1.9584961586
  O         5.7585711679        2.9113077539       11.3558951291
  C         5.5580071329        0.3865570333       12.5438171278
  C         1.0980248282        8.5798548542        0.7828431864
  C         2.2516861274        0.3602034964        7.4336119055
  C         4.4085191272        8.5688041066        5.8911472355
  C         4.5049828863       15.9128052766        6.0619077683
  C         2.1129019275        7.7244771334        7.2592395225
  C         1.1979695535       15.9289407433        0.6129224587
  C         5.4441382578        7.7297160005       12.7274721976
  H         4.7598466936        0.7695339499       11.9996955476
  H         1.9701364218        8.8751905423        1.3317389845
  H         1.4394599924        0.7482795352        7.9964606835